Program Version,EnergyPlus-Darwin-OMP-64 8.0.0.008, YMD=2013.11.09 12:26
1,5,Environment Title[],Latitude[deg],Longitude[deg],Time Zone[],Elevation[m]
2,6,Day of Simulation[],Month[],Day of Month[],DST Indicator[1=yes 0=no],Hour[],StartMinute[],EndMinute[],DayType
3,3,Cumulative Day of Simulation[],Month[],Day of Month[],DST Indicator[1=yes 0=no],DayType  ! When Daily Meters Requested
4,2,Cumulative Days of Simulation[],Month[]  ! When Monthly Meters Requested
5,1,Cumulative Days of Simulation[] ! When Run Period Meters Requested
7,1,Electricity:Facility [J] !TimeStep
243,1,DistrictCooling:Facility [J] !TimeStep
212,1,DistrictHeating:Facility [J] !TimeStep
End of Data Dictionary
1,RUN PERIOD 1,  40.78, -73.97,  -5.00,  40.00
2,1, 1, 1, 0, 1, 0.00,15.00,Sunday         
7,24063.8084884234
212,137558.593828566
243,0.0
2,1, 1, 1, 0, 1,15.00,30.00,Sunday         
7,24063.8084884234
212,136963.722523262
243,0.0
2,1, 1, 1, 0, 1,30.00,45.00,Sunday         
7,24063.8084884234
212,136058.730685308
243,0.0
2,1, 1, 1, 0, 1,45.00,60.00,Sunday         
7,24063.8084884234
212,134871.694407301
243,0.0
2,1, 1, 1, 0, 2, 0.00,15.00,Sunday         
7,24063.8084884234
212,136529.995222338
243,0.0
2,1, 1, 1, 0, 2,15.00,30.00,Sunday         
7,24063.8084884234
212,138134.399720131
243,0.0
2,1, 1, 1, 0, 2,30.00,45.00,Sunday         
7,24063.8084884234
212,139596.191304059
243,0.0
2,1, 1, 1, 0, 2,45.00,60.00,Sunday         
7,24063.8084884234
212,140848.770492241
243,0.0
2,1, 1, 1, 0, 3, 0.00,15.00,Sunday         
7,24063.8084884234
212,142204.07292245
243,0.0
2,1, 1, 1, 0, 3,15.00,30.00,Sunday         
7,24063.8084884234
212,143322.156973932
243,0.0
2,1, 1, 1, 0, 3,30.00,45.00,Sunday         
7,24063.8084884234
212,144215.316450042
243,0.0
2,1, 1, 1, 0, 3,45.00,60.00,Sunday         
7,24063.8084884234
212,144911.513855715
243,0.0
2,1, 1, 1, 0, 4, 0.00,15.00,Sunday         
7,24063.8084884234
212,145531.218788689
243,0.0
2,1, 1, 1, 0, 4,15.00,30.00,Sunday         
7,24063.8084884234
212,145995.456318814
243,0.0
2,1, 1, 1, 0, 4,30.00,45.00,Sunday         
7,24063.8084884234
212,146374.562831999
243,0.0
2,1, 1, 1, 0, 4,45.00,60.00,Sunday         
7,24063.8084884234
212,146707.342143511
243,0.0
2,1, 1, 1, 0, 5, 0.00,15.00,Sunday         
7,24063.8084884234
212,146604.48314489
243,0.0
2,1, 1, 1, 0, 5,15.00,30.00,Sunday         
7,24063.8084884234
212,146471.255136585
243,0.0
2,1, 1, 1, 0, 5,30.00,45.00,Sunday         
7,24063.8084884234
212,146332.620295169
243,0.0
2,1, 1, 1, 0, 5,45.00,60.00,Sunday         
7,24063.8084884234
212,146206.076325698
243,0.0
2,1, 1, 1, 0, 6, 0.00,15.00,Sunday         
7,24063.8084884234
212,146482.109814681
243,0.0
2,1, 1, 1, 0, 6,15.00,30.00,Sunday         
7,24063.8084884234
212,146831.274822446
243,0.0
2,1, 1, 1, 0, 6,30.00,45.00,Sunday         
7,24063.8084884234
212,147209.291906179
243,0.0
2,1, 1, 1, 0, 6,45.00,60.00,Sunday         
7,24063.8084884234
212,147691.913051351
243,0.0
2,1, 1, 1, 0, 7, 0.00,15.00,Sunday         
7,24063.8084884234
212,147721.166905964
243,0.0
2,1, 1, 1, 0, 7,15.00,30.00,Sunday         
7,24063.8084884234
212,147512.608079249
243,0.0
2,1, 1, 1, 0, 7,30.00,45.00,Sunday         
7,24063.8084884234
212,147314.082728704
243,0.0
2,1, 1, 1, 0, 7,45.00,60.00,Sunday         
7,24063.8084884234
212,146928.103017269
243,0.0
2,1, 1, 1, 0, 8, 0.00,15.00,Sunday         
7,24063.8084884234
212,147462.305334824
243,0.0
2,1, 1, 1, 0, 8,15.00,30.00,Sunday         
7,24063.8084884234
212,146576.34502621
243,0.0
2,1, 1, 1, 0, 8,30.00,45.00,Sunday         
7,24063.8084884234
212,144880.829906505
243,0.0
2,1, 1, 1, 0, 8,45.00,60.00,Sunday         
7,24063.8084884234
212,141738.451815391
243,0.0
2,1, 1, 1, 0, 9, 0.00,15.00,Sunday         
7,24063.8084884234
212,139138.161205716
243,0.0
2,1, 1, 1, 0, 9,15.00,30.00,Sunday         
7,24063.8084884234
212,135147.513653555
243,0.0
2,1, 1, 1, 0, 9,30.00,45.00,Sunday         
7,24063.8084884234
212,127482.900463242
243,0.0
2,1, 1, 1, 0, 9,45.00,60.00,Sunday         
7,24063.8084884234
212,115222.659093925
243,0.0
2,1, 1, 1, 0,10, 0.00,15.00,Sunday         
7,24063.8084884234
212,101381.51507135
243,0.0
2,1, 1, 1, 0,10,15.00,30.00,Sunday         
7,24063.8084884234
212,86052.1663269095
243,0.0
2,1, 1, 1, 0,10,30.00,45.00,Sunday         
7,24063.8084884234
212,71709.5749735269
243,0.0
2,1, 1, 1, 0,10,45.00,60.00,Sunday         
7,24063.8084884234
212,57984.0828982963
243,0.0
2,1, 1, 1, 0,11, 0.00,15.00,Sunday         
7,24063.8084884234
212,43680.0938453489
243,0.0
2,1, 1, 1, 0,11,15.00,30.00,Sunday         
7,24063.8084884234
212,29094.2773945519
243,0.0
2,1, 1, 1, 0,11,30.00,45.00,Sunday         
7,24063.8084884234
212,18698.5002147786
243,0.0
2,1, 1, 1, 0,11,45.00,60.00,Sunday         
7,24063.8084884234
212,10317.5918801632
243,0.0
2,1, 1, 1, 0,12, 0.00,15.00,Sunday         
7,24063.8084884234
212,2729.50038398333
243,0.0
2,1, 1, 1, 0,12,15.00,30.00,Sunday         
7,24063.8084884234
212,0.0
243,0.0
2,1, 1, 1, 0,12,30.00,45.00,Sunday         
7,24063.8084884234
212,0.0
243,0.0
2,1, 1, 1, 0,12,45.00,60.00,Sunday         
7,24063.8084884234
212,0.0
243,0.0
2,1, 1, 1, 0,13, 0.00,15.00,Sunday         
7,24063.8084884234
212,0.0
243,0.0
2,1, 1, 1, 0,13,15.00,30.00,Sunday         
7,24063.8084884234
212,0.0
243,0.0
2,1, 1, 1, 0,13,30.00,45.00,Sunday         
7,24063.8084884234
212,0.0
243,0.0
2,1, 1, 1, 0,13,45.00,60.00,Sunday         
7,24063.8084884234
212,0.0
243,0.0
2,1, 1, 1, 0,14, 0.00,15.00,Sunday         
7,24063.8084884234
212,0.0
243,0.0
2,1, 1, 1, 0,14,15.00,30.00,Sunday         
7,24063.8084884234
212,0.0
243,0.0
2,1, 1, 1, 0,14,30.00,45.00,Sunday         
7,24063.8084884234
212,0.0
243,0.0
2,1, 1, 1, 0,14,45.00,60.00,Sunday         
7,24063.8084884234
212,0.0
243,0.0
2,1, 1, 1, 0,15, 0.00,15.00,Sunday         
7,24063.8084884234
212,0.0
243,0.0
2,1, 1, 1, 0,15,15.00,30.00,Sunday         
7,24063.8084884234
212,0.0
243,0.0
2,1, 1, 1, 0,15,30.00,45.00,Sunday         
7,24063.8084884234
212,0.0
243,0.0
2,1, 1, 1, 0,15,45.00,60.00,Sunday         
7,24063.8084884234
212,0.0
243,0.0
2,1, 1, 1, 0,16, 0.00,15.00,Sunday         
7,24063.8084884234
212,0.0
243,0.0
2,1, 1, 1, 0,16,15.00,30.00,Sunday         
7,24063.8084884234
212,0.0
243,0.0
2,1, 1, 1, 0,16,30.00,45.00,Sunday         
7,24063.8084884234
212,0.0
243,0.0
2,1, 1, 1, 0,16,45.00,60.00,Sunday         
7,24063.8084884234
212,0.0
243,0.0
2,1, 1, 1, 0,17, 0.00,15.00,Sunday         
7,24063.8084884234
212,0.0
243,0.0
2,1, 1, 1, 0,17,15.00,30.00,Sunday         
7,24063.8084884234
212,0.0
243,0.0
2,1, 1, 1, 0,17,30.00,45.00,Sunday         
7,24063.8084884234
212,0.0
243,0.0
2,1, 1, 1, 0,17,45.00,60.00,Sunday         
7,24063.8084884234
212,0.0
243,0.0
2,1, 1, 1, 0,18, 0.00,15.00,Sunday         
7,24063.8084884234
212,0.0
243,0.0
2,1, 1, 1, 0,18,15.00,30.00,Sunday         
7,24063.8084884234
212,0.0
243,0.0
2,1, 1, 1, 0,18,30.00,45.00,Sunday         
7,24063.8084884234
212,0.0
243,0.0
2,1, 1, 1, 0,18,45.00,60.00,Sunday         
7,24063.8084884234
212,0.0
243,0.0
2,1, 1, 1, 0,19, 0.00,15.00,Sunday         
7,24063.8084884234
212,0.0
243,0.0
2,1, 1, 1, 0,19,15.00,30.00,Sunday         
7,24063.8084884234
212,3915.09989869873
243,0.0
2,1, 1, 1, 0,19,30.00,45.00,Sunday         
7,24063.8084884234
212,11251.6798036738
243,0.0
2,1, 1, 1, 0,19,45.00,60.00,Sunday         
7,24063.8084884234
212,19281.4982213789
243,0.0
2,1, 1, 1, 0,20, 0.00,15.00,Sunday         
7,24063.8084884234
212,26779.7995284785
243,0.0
2,1, 1, 1, 0,20,15.00,30.00,Sunday         
7,24063.8084884234
212,34102.4935954359
243,0.0
2,1, 1, 1, 0,20,30.00,45.00,Sunday         
7,24063.8084884234
212,40966.4577299723
243,0.0
2,1, 1, 1, 0,20,45.00,60.00,Sunday         
7,24063.8084884234
212,47639.4545094551
243,0.0
2,1, 1, 1, 0,21, 0.00,15.00,Sunday         
7,24063.8084884234
212,55187.2838513674
243,0.0
2,1, 1, 1, 0,21,15.00,30.00,Sunday         
7,24063.8084884234
212,62568.4302617919
243,0.0
2,1, 1, 1, 0,21,30.00,45.00,Sunday         
7,24063.8084884234
212,69748.1709505944
243,0.0
2,1, 1, 1, 0,21,45.00,60.00,Sunday         
7,24063.8084884234
212,76664.0600040204
243,0.0
2,1, 1, 1, 0,22, 0.00,15.00,Sunday         
7,24063.8084884234
212,83359.2400522063
243,0.0
2,1, 1, 1, 0,22,15.00,30.00,Sunday         
7,24063.8084884234
212,89736.1102242573
243,0.0
2,1, 1, 1, 0,22,30.00,45.00,Sunday         
7,24063.8084884234
212,95791.3530960691
243,0.0
2,1, 1, 1, 0,22,45.00,60.00,Sunday         
7,24063.8084884234
212,101532.332239561
243,0.0
2,1, 1, 1, 0,23, 0.00,15.00,Sunday         
7,24063.8084884234
212,106987.886123442
243,0.0
2,1, 1, 1, 0,23,15.00,30.00,Sunday         
7,24063.8084884234
212,112154.380943504
243,0.0
2,1, 1, 1, 0,23,30.00,45.00,Sunday         
7,24063.8084884234
212,117053.343231557
243,0.0
2,1, 1, 1, 0,23,45.00,60.00,Sunday         
7,24063.8084884234
212,121707.294747017
243,0.0
2,1, 1, 1, 0,24, 0.00,15.00,Sunday         
7,24063.8084884234
212,126221.428658816
243,0.0
2,1, 1, 1, 0,24,15.00,30.00,Sunday         
7,24063.8084884234
212,130330.511813716
243,0.0
2,1, 1, 1, 0,24,30.00,45.00,Sunday         
7,24063.8084884234
212,134240.475558954
243,0.0
2,1, 1, 1, 0,24,45.00,60.00,Sunday         
7,24063.8084884234
212,137761.457923836
243,0.0
2,2, 1, 2, 0, 1, 0.00,15.00,Monday         
7,30341.323746273
212,134918.832016706
243,0.0
2,2, 1, 2, 0, 1,15.00,30.00,Monday         
7,30341.323746273
212,139666.623887455
243,0.0
2,2, 1, 2, 0, 1,30.00,45.00,Monday         
7,30341.323746273
212,144303.205542276
243,0.0
2,2, 1, 2, 0, 1,45.00,60.00,Monday         
7,30341.323746273
212,148539.208468019
243,0.0
2,2, 1, 2, 0, 2, 0.00,15.00,Monday         
7,30341.323746273
212,151789.966285361
243,0.0
2,2, 1, 2, 0, 2,15.00,30.00,Monday         
7,30341.323746273
212,154919.208112706
243,0.0
2,2, 1, 2, 0, 2,30.00,45.00,Monday         
7,30341.323746273
212,157955.918029538
243,0.0
2,2, 1, 2, 0, 2,45.00,60.00,Monday         
7,30341.323746273
212,160925.78088839
243,0.0
2,2, 1, 2, 0, 3, 0.00,15.00,Monday         
7,30341.323746273
212,164039.950178491
243,0.0
2,2, 1, 2, 0, 3,15.00,30.00,Monday         
7,30341.323746273
212,167138.201682862
243,0.0
2,2, 1, 2, 0, 3,30.00,45.00,Monday         
7,30341.323746273
212,170209.722629561
243,0.0
2,2, 1, 2, 0, 3,45.00,60.00,Monday         
7,30341.323746273
212,173241.50992911
243,0.0
2,2, 1, 2, 0, 4, 0.00,15.00,Monday         
7,30341.323746273
212,176463.577700291
243,0.0
2,2, 1, 2, 0, 4,15.00,30.00,Monday         
7,30341.323746273
212,179424.358639566
243,0.0
2,2, 1, 2, 0, 4,30.00,45.00,Monday         
7,30341.323746273
212,182364.815462889
243,0.0
2,2, 1, 2, 0, 4,45.00,60.00,Monday         
7,30341.323746273
212,185007.972712394
243,0.0
2,2, 1, 2, 0, 5, 0.00,15.00,Monday         
7,30341.323746273
212,187901.479306714
243,0.0
2,2, 1, 2, 0, 5,15.00,30.00,Monday         
7,30341.323746273
212,190756.077369373
243,0.0
2,2, 1, 2, 0, 5,30.00,45.00,Monday         
7,30341.323746273
212,193569.232812401
243,0.0
2,2, 1, 2, 0, 5,45.00,60.00,Monday         
7,30341.323746273
212,196341.006219364
243,0.0
2,2, 1, 2, 0, 6, 0.00,15.00,Monday         
7,35572.5864611476
212,193368.941564703
243,0.0
2,2, 1, 2, 0, 6,15.00,30.00,Monday         
7,35572.5864611476
212,196371.323591171
243,0.0
2,2, 1, 2, 0, 6,30.00,45.00,Monday         
7,35572.5864611476
212,199338.978485601
243,0.0
2,2, 1, 2, 0, 6,45.00,60.00,Monday         
7,35572.5864611476
212,201985.896948896
243,0.0
2,2, 1, 2, 0, 7, 0.00,15.00,Monday         
7,35572.5864611476
212,997869.074844547
243,0.0
2,2, 1, 2, 0, 7,15.00,30.00,Monday         
7,35572.5864611476
212,941903.545588711
243,0.0
2,2, 1, 2, 0, 7,30.00,45.00,Monday         
7,35572.5864611476
212,766404.481537128
243,0.0
2,2, 1, 2, 0, 7,45.00,60.00,Monday         
7,35572.5864611476
212,671504.100467504
243,0.0
2,2, 1, 2, 0, 8, 0.00,15.00,Monday         
7,56497.6373206462
212,609454.992861287
243,0.0
2,2, 1, 2, 0, 8,15.00,30.00,Monday         
7,56497.6373206462
212,564978.806839392
243,0.0
2,2, 1, 2, 0, 8,30.00,45.00,Monday         
7,56497.6373206462
212,527156.092204305
243,0.0
2,2, 1, 2, 0, 8,45.00,60.00,Monday         
7,56497.6373206462
212,494553.924556686
243,0.0
2,2, 1, 2, 0, 9, 0.00,15.00,Monday         
7,150660.36618839
212,514666.021882297
243,0.0
2,2, 1, 2, 0, 9,15.00,30.00,Monday         
7,150660.36618839
212,508445.70498663
243,0.0
2,2, 1, 2, 0, 9,30.00,45.00,Monday         
7,150660.36618839
212,495978.370995437
243,0.0
2,2, 1, 2, 0, 9,45.00,60.00,Monday         
7,150660.36618839
212,480619.155491299
243,0.0
2,2, 1, 2, 0,10, 0.00,15.00,Monday         
7,150660.36618839
212,460597.281703746
243,0.0
2,2, 1, 2, 0,10,15.00,30.00,Monday         
7,150660.36618839
212,439501.61987211
243,0.0
2,2, 1, 2, 0,10,30.00,45.00,Monday         
7,150660.36618839
212,419168.144152227
243,0.0
2,2, 1, 2, 0,10,45.00,60.00,Monday         
7,150660.36618839
212,399247.008322599
243,0.0
2,2, 1, 2, 0,11, 0.00,15.00,Monday         
7,150660.36618839
212,378136.556129463
243,0.0
2,2, 1, 2, 0,11,15.00,30.00,Monday         
7,150660.36618839
212,357024.854476626
243,0.0
2,2, 1, 2, 0,11,30.00,45.00,Monday         
7,150660.36618839
212,336849.698697352
243,0.0
2,2, 1, 2, 0,11,45.00,60.00,Monday         
7,150660.36618839
212,317329.931666859
243,0.0
2,2, 1, 2, 0,12, 0.00,15.00,Monday         
7,150660.36618839
212,301635.476290691
243,0.0
2,2, 1, 2, 0,12,15.00,30.00,Monday         
7,150660.36618839
212,286414.584929911
243,0.0
2,2, 1, 2, 0,12,30.00,45.00,Monday         
7,150660.36618839
212,272212.386018248
243,0.0
2,2, 1, 2, 0,12,45.00,60.00,Monday         
7,150660.36618839
212,258864.351856347
243,0.0
2,2, 1, 2, 0,13, 0.00,15.00,Monday         
7,144382.85093054
212,166594.688832934
243,0.0
2,2, 1, 2, 0,13,15.00,30.00,Monday         
7,144382.85093054
212,155963.16232169
243,0.0
2,2, 1, 2, 0,13,30.00,45.00,Monday         
7,144382.85093054
212,147239.405621444
243,0.0
2,2, 1, 2, 0,13,45.00,60.00,Monday         
7,144382.85093054
212,139469.519263849
243,0.0
2,2, 1, 2, 0,14, 0.00,15.00,Monday         
7,150660.36618839
212,210178.108089219
243,0.0
2,2, 1, 2, 0,14,15.00,30.00,Monday         
7,150660.36618839
212,204368.96155125
243,0.0
2,2, 1, 2, 0,14,30.00,45.00,Monday         
7,150660.36618839
212,198694.234028474
243,0.0
2,2, 1, 2, 0,14,45.00,60.00,Monday         
7,150660.36618839
212,193343.669271474
243,0.0
2,2, 1, 2, 0,15, 0.00,15.00,Monday         
7,150660.36618839
212,189061.047466528
243,0.0
2,2, 1, 2, 0,15,15.00,30.00,Monday         
7,150660.36618839
212,185560.360557193
243,0.0
2,2, 1, 2, 0,15,30.00,45.00,Monday         
7,150660.36618839
212,187502.530935366
243,0.0
2,2, 1, 2, 0,15,45.00,60.00,Monday         
7,150660.36618839
212,193301.838331787
243,0.0
2,2, 1, 2, 0,16, 0.00,15.00,Monday         
7,150660.36618839
212,202912.713157554
243,0.0
2,2, 1, 2, 0,16,15.00,30.00,Monday         
7,150660.36618839
212,214032.009020446
243,0.0
2,2, 1, 2, 0,16,30.00,45.00,Monday         
7,150660.36618839
212,221485.238767364
243,0.0
2,2, 1, 2, 0,16,45.00,60.00,Monday         
7,150660.36618839
212,226909.241018973
243,0.0
2,2, 1, 2, 0,17, 0.00,15.00,Monday         
7,150660.36618839
212,234763.055429002
243,0.0
2,2, 1, 2, 0,17,15.00,30.00,Monday         
7,150660.36618839
212,242935.251398804
243,0.0
2,2, 1, 2, 0,17,30.00,45.00,Monday         
7,150660.36618839
212,252695.091212337
243,0.0
2,2, 1, 2, 0,17,45.00,60.00,Monday         
7,150660.36618839
212,259692.288437716
243,0.0
2,2, 1, 2, 0,18, 0.00,15.00,Monday         
7,123457.800071042
212,251620.857780453
243,0.0
2,2, 1, 2, 0,18,15.00,30.00,Monday         
7,123457.800071042
212,254447.980826597
243,0.0
2,2, 1, 2, 0,18,30.00,45.00,Monday         
7,123457.800071042
212,257229.692586566
243,0.0
2,2, 1, 2, 0,18,45.00,60.00,Monday         
7,123457.800071042
212,260223.492303519
243,0.0
2,2, 1, 2, 0,19, 0.00,15.00,Monday         
7,89977.718695844
212,249879.829811836
243,0.0
2,2, 1, 2, 0,19,15.00,30.00,Monday         
7,89977.718695844
212,251699.367039728
243,0.0
2,2, 1, 2, 0,19,30.00,45.00,Monday         
7,89977.718695844
212,253834.038391673
243,0.0
2,2, 1, 2, 0,19,45.00,60.00,Monday         
7,89977.718695844
212,256284.084330463
243,0.0
2,2, 1, 2, 0,20, 0.00,15.00,Monday         
7,89977.718695844
212,259705.094560689
243,0.0
2,2, 1, 2, 0,20,15.00,30.00,Monday         
7,89977.718695844
212,263285.238719176
243,0.0
2,2, 1, 2, 0,20,30.00,45.00,Monday         
7,89977.718695844
212,266929.730788817
243,0.0
2,2, 1, 2, 0,20,45.00,60.00,Monday         
7,89977.718695844
212,270568.510518452
243,0.0
2,2, 1, 2, 0,21, 0.00,15.00,Monday         
7,62775.1525784958
212,256376.891300045
243,0.0
2,2, 1, 2, 0,21,15.00,30.00,Monday         
7,62775.1525784958
212,257877.859177516
243,0.0
2,2, 1, 2, 0,21,30.00,45.00,Monday         
7,62775.1525784958
212,259373.530045263
243,0.0
2,2, 1, 2, 0,21,45.00,60.00,Monday         
7,62775.1525784958
212,260937.214576935
243,0.0
2,2, 1, 2, 0,22, 0.00,15.00,Monday         
7,62775.1525784958
212,262537.615367861
243,0.0
2,2, 1, 2, 0,22,15.00,30.00,Monday         
7,62775.1525784958
212,264171.673186276
243,0.0
2,2, 1, 2, 0,22,30.00,45.00,Monday         
7,62775.1525784958
212,265822.789714143
243,0.0
2,2, 1, 2, 0,22,45.00,60.00,Monday         
7,62775.1525784958
212,267421.074916463
243,0.0
2,2, 1, 2, 0,23, 0.00,15.00,Monday         
7,35572.5864611476
212,0.0
243,0.0
2,2, 1, 2, 0,23,15.00,30.00,Monday         
7,35572.5864611476
212,0.0
243,0.0
2,2, 1, 2, 0,23,30.00,45.00,Monday         
7,35572.5864611476
212,0.0
243,0.0
2,2, 1, 2, 0,23,45.00,60.00,Monday         
7,35572.5864611476
212,0.0
243,0.0
2,2, 1, 2, 0,24, 0.00,15.00,Monday         
7,30341.323746273
212,0.0
243,0.0
2,2, 1, 2, 0,24,15.00,30.00,Monday         
7,30341.323746273
212,0.0
243,0.0
2,2, 1, 2, 0,24,30.00,45.00,Monday         
7,30341.323746273
212,0.0
243,0.0
2,2, 1, 2, 0,24,45.00,60.00,Monday         
7,30341.323746273
212,0.0
243,0.0
2,3, 1, 3, 0, 1, 0.00,15.00,Tuesday        
7,30341.323746273
212,0.0
243,0.0
2,3, 1, 3, 0, 1,15.00,30.00,Tuesday        
7,30341.323746273
212,0.0
243,0.0
2,3, 1, 3, 0, 1,30.00,45.00,Tuesday        
7,30341.323746273
212,2331.83185904214
243,0.0
2,3, 1, 3, 0, 1,45.00,60.00,Tuesday        
7,30341.323746273
212,17300.9840691832
243,0.0
2,3, 1, 3, 0, 2, 0.00,15.00,Tuesday        
7,30341.323746273
212,30883.0173702164
243,0.0
2,3, 1, 3, 0, 2,15.00,30.00,Tuesday        
7,30341.323746273
212,42892.6818182507
243,0.0
2,3, 1, 3, 0, 2,30.00,45.00,Tuesday        
7,30341.323746273
212,53448.2920799712
243,0.0
2,3, 1, 3, 0, 2,45.00,60.00,Tuesday        
7,30341.323746273
212,62622.6300820734
243,0.0
2,3, 1, 3, 0, 3, 0.00,15.00,Tuesday        
7,30341.323746273
212,71811.4775865971
243,0.0
2,3, 1, 3, 0, 3,15.00,30.00,Tuesday        
7,30341.323746273
212,79821.2623934673
243,0.0
2,3, 1, 3, 0, 3,30.00,45.00,Tuesday        
7,30341.323746273
212,86850.8523979527
243,0.0
2,3, 1, 3, 0, 3,45.00,60.00,Tuesday        
7,30341.323746273
212,92979.0061973922
243,0.0
2,3, 1, 3, 0, 4, 0.00,15.00,Tuesday        
7,30341.323746273
212,98280.5583982935
243,0.0
2,3, 1, 3, 0, 4,15.00,30.00,Tuesday        
7,30341.323746273
212,102846.812940971
243,0.0
2,3, 1, 3, 0, 4,30.00,45.00,Tuesday        
7,30341.323746273
212,106767.793016579
243,0.0
2,3, 1, 3, 0, 4,45.00,60.00,Tuesday        
7,30341.323746273
212,110129.335308228
243,0.0
2,3, 1, 3, 0, 5, 0.00,15.00,Tuesday        
7,30341.323746273
212,112600.368146466
243,0.0
2,3, 1, 3, 0, 5,15.00,30.00,Tuesday        
7,30341.323746273
212,114617.896233965
243,0.0
2,3, 1, 3, 0, 5,30.00,45.00,Tuesday        
7,30341.323746273
212,116308.173034782
243,0.0
2,3, 1, 3, 0, 5,45.00,60.00,Tuesday        
7,30341.323746273
212,117731.499791973
243,0.0
2,3, 1, 3, 0, 6, 0.00,15.00,Tuesday        
7,35572.5864611476
212,113155.797576365
243,0.0
2,3, 1, 3, 0, 6,15.00,30.00,Tuesday        
7,35572.5864611476
212,114555.917144166
243,0.0
2,3, 1, 3, 0, 6,30.00,45.00,Tuesday        
7,35572.5864611476
212,115748.451587051
243,0.0
2,3, 1, 3, 0, 6,45.00,60.00,Tuesday        
7,35572.5864611476
212,116754.035551001
243,0.0
2,3, 1, 3, 0, 7, 0.00,15.00,Tuesday        
7,35572.5864611476
212,900283.622887014
243,0.0
2,3, 1, 3, 0, 7,15.00,30.00,Tuesday        
7,35572.5864611476
212,840249.799180318
243,0.0
2,3, 1, 3, 0, 7,30.00,45.00,Tuesday        
7,35572.5864611476
212,668704.231361408
243,0.0
2,3, 1, 3, 0, 7,45.00,60.00,Tuesday        
7,35572.5864611476
212,574718.814711461
243,0.0
2,3, 1, 3, 0, 8, 0.00,15.00,Tuesday        
7,56497.6373206462
212,503013.174102285
243,0.0
2,3, 1, 3, 0, 8,15.00,30.00,Tuesday        
7,56497.6373206462
212,461330.521570668
243,0.0
2,3, 1, 3, 0, 8,30.00,45.00,Tuesday        
7,56497.6373206462
212,430357.880531672
243,0.0
2,3, 1, 3, 0, 8,45.00,60.00,Tuesday        
7,56497.6373206462
212,406253.235330086
243,0.0
2,3, 1, 3, 0, 9, 0.00,15.00,Tuesday        
7,150660.36618839
212,365988.597175302
243,0.0
2,3, 1, 3, 0, 9,15.00,30.00,Tuesday        
7,150660.36618839
212,358869.285384323
243,0.0
2,3, 1, 3, 0, 9,30.00,45.00,Tuesday        
7,150660.36618839
212,350282.006926335
243,0.0
2,3, 1, 3, 0, 9,45.00,60.00,Tuesday        
7,150660.36618839
212,341173.137942386
243,0.0
2,3, 1, 3, 0,10, 0.00,15.00,Tuesday        
7,150660.36618839
212,330516.641913844
243,0.0
2,3, 1, 3, 0,10,15.00,30.00,Tuesday        
7,150660.36618839
212,320359.298287496
243,0.0
2,3, 1, 3, 0,10,30.00,45.00,Tuesday        
7,150660.36618839
212,310615.72336391
243,0.0
2,3, 1, 3, 0,10,45.00,60.00,Tuesday        
7,150660.36618839
212,301215.88646193
243,0.0
2,3, 1, 3, 0,11, 0.00,15.00,Tuesday        
7,150660.36618839
212,291976.16548657
243,0.0
2,3, 1, 3, 0,11,15.00,30.00,Tuesday        
7,150660.36618839
212,282978.993381201
243,0.0
2,3, 1, 3, 0,11,30.00,45.00,Tuesday        
7,150660.36618839
212,274694.631715867
243,0.0
2,3, 1, 3, 0,11,45.00,60.00,Tuesday        
7,150660.36618839
212,266957.42137215
243,0.0
2,3, 1, 3, 0,12, 0.00,15.00,Tuesday        
7,150660.36618839
212,261321.048948399
243,0.0
2,3, 1, 3, 0,12,15.00,30.00,Tuesday        
7,150660.36618839
212,256115.423859985
243,0.0
2,3, 1, 3, 0,12,30.00,45.00,Tuesday        
7,150660.36618839
212,251045.670361299
243,0.0
2,3, 1, 3, 0,12,45.00,60.00,Tuesday        
7,150660.36618839
212,246088.143190058
243,0.0
2,3, 1, 3, 0,13, 0.00,15.00,Tuesday        
7,144382.85093054
212,205820.28908324
243,0.0
2,3, 1, 3, 0,13,15.00,30.00,Tuesday        
7,144382.85093054
212,201895.701425005
243,0.0
2,3, 1, 3, 0,13,30.00,45.00,Tuesday        
7,144382.85093054
212,198378.760085502
243,0.0
2,3, 1, 3, 0,13,45.00,60.00,Tuesday        
7,144382.85093054
212,195370.220270394
243,0.0
2,3, 1, 3, 0,14, 0.00,15.00,Tuesday        
7,150660.36618839
212,230027.955738823
243,0.0
2,3, 1, 3, 0,14,15.00,30.00,Tuesday        
7,150660.36618839
212,226879.831675673
243,0.0
2,3, 1, 3, 0,14,30.00,45.00,Tuesday        
7,150660.36618839
212,224063.686647624
243,0.0
2,3, 1, 3, 0,14,45.00,60.00,Tuesday        
7,150660.36618839
212,221393.183245108
243,0.0
2,3, 1, 3, 0,15, 0.00,15.00,Tuesday        
7,150660.36618839
212,219130.850795008
243,0.0
2,3, 1, 3, 0,15,15.00,30.00,Tuesday        
7,150660.36618839
212,217030.121225518
243,0.0
2,3, 1, 3, 0,15,30.00,45.00,Tuesday        
7,150660.36618839
212,214803.760979463
243,0.0
2,3, 1, 3, 0,15,45.00,60.00,Tuesday        
7,150660.36618839
212,212491.459159841
243,0.0
2,3, 1, 3, 0,16, 0.00,15.00,Tuesday        
7,150660.36618839
212,211548.989091219
243,0.0
2,3, 1, 3, 0,16,15.00,30.00,Tuesday        
7,150660.36618839
212,210452.731180248
243,0.0
2,3, 1, 3, 0,16,30.00,45.00,Tuesday        
7,150660.36618839
212,210372.004125756
243,0.0
2,3, 1, 3, 0,16,45.00,60.00,Tuesday        
7,150660.36618839
212,211118.198447591
243,0.0
2,3, 1, 3, 0,17, 0.00,15.00,Tuesday        
7,150660.36618839
212,211406.413414066
243,0.0
2,3, 1, 3, 0,17,15.00,30.00,Tuesday        
7,150660.36618839
212,212233.818742252
243,0.0
2,3, 1, 3, 0,17,30.00,45.00,Tuesday        
7,150660.36618839
212,212910.21142485
243,0.0
2,3, 1, 3, 0,17,45.00,60.00,Tuesday        
7,150660.36618839
212,213201.482809904
243,0.0
2,3, 1, 3, 0,18, 0.00,15.00,Tuesday        
7,123457.800071042
212,216755.028807722
243,0.0
2,3, 1, 3, 0,18,15.00,30.00,Tuesday        
7,123457.800071042
212,216450.582833485
243,0.0
2,3, 1, 3, 0,18,30.00,45.00,Tuesday        
7,123457.800071042
212,216276.743442778
243,0.0
2,3, 1, 3, 0,18,45.00,60.00,Tuesday        
7,123457.800071042
212,216289.962886131
243,0.0
2,3, 1, 3, 0,19, 0.00,15.00,Tuesday        
7,89977.718695844
212,221794.667727206
243,0.0
2,3, 1, 3, 0,19,15.00,30.00,Tuesday        
7,89977.718695844
212,221530.408092328
243,0.0
2,3, 1, 3, 0,19,30.00,45.00,Tuesday        
7,89977.718695844
212,221425.279367714
243,0.0
2,3, 1, 3, 0,19,45.00,60.00,Tuesday        
7,89977.718695844
212,221520.336150363
243,0.0
2,3, 1, 3, 0,20, 0.00,15.00,Tuesday        
7,89977.718695844
212,222431.654212226
243,0.0
2,3, 1, 3, 0,20,15.00,30.00,Tuesday        
7,89977.718695844
212,223489.992547086
243,0.0
2,3, 1, 3, 0,20,30.00,45.00,Tuesday        
7,89977.718695844
212,224668.783383915
243,0.0
2,3, 1, 3, 0,20,45.00,60.00,Tuesday        
7,89977.718695844
212,225948.266256297
243,0.0
2,3, 1, 3, 0,21, 0.00,15.00,Tuesday        
7,62775.1525784958
212,223444.748508232
243,0.0
2,3, 1, 3, 0,21,15.00,30.00,Tuesday        
7,62775.1525784958
212,223020.319901398
243,0.0
2,3, 1, 3, 0,21,30.00,45.00,Tuesday        
7,62775.1525784958
212,222714.490012997
243,0.0
2,3, 1, 3, 0,21,45.00,60.00,Tuesday        
7,62775.1525784958
212,222584.630262871
243,0.0
2,3, 1, 3, 0,22, 0.00,15.00,Tuesday        
7,62775.1525784958
212,223085.737092974
243,0.0
2,3, 1, 3, 0,22,15.00,30.00,Tuesday        
7,62775.1525784958
212,223777.499192827
243,0.0
2,3, 1, 3, 0,22,30.00,45.00,Tuesday        
7,62775.1525784958
212,224636.108261413
243,0.0
2,3, 1, 3, 0,22,45.00,60.00,Tuesday        
7,62775.1525784958
212,225629.815905337
243,0.0
2,3, 1, 3, 0,23, 0.00,15.00,Tuesday        
7,35572.5864611476
212,0.0
243,0.0
2,3, 1, 3, 0,23,15.00,30.00,Tuesday        
7,35572.5864611476
212,0.0
243,0.0
2,3, 1, 3, 0,23,30.00,45.00,Tuesday        
7,35572.5864611476
212,0.0
243,0.0
2,3, 1, 3, 0,23,45.00,60.00,Tuesday        
7,35572.5864611476
212,0.0
243,0.0
2,3, 1, 3, 0,24, 0.00,15.00,Tuesday        
7,30341.323746273
212,0.0
243,0.0
2,3, 1, 3, 0,24,15.00,30.00,Tuesday        
7,30341.323746273
212,0.0
243,0.0
2,3, 1, 3, 0,24,30.00,45.00,Tuesday        
7,30341.323746273
212,0.0
243,0.0
2,3, 1, 3, 0,24,45.00,60.00,Tuesday        
7,30341.323746273
212,0.0
243,0.0
2,4, 1, 4, 0, 1, 0.00,15.00,Wednesday      
7,30341.323746273
212,0.0
243,0.0
2,4, 1, 4, 0, 1,15.00,30.00,Wednesday      
7,30341.323746273
212,0.0
243,0.0
2,4, 1, 4, 0, 1,30.00,45.00,Wednesday      
7,30341.323746273
212,0.0
243,0.0
2,4, 1, 4, 0, 1,45.00,60.00,Wednesday      
7,30341.323746273
212,0.0
243,0.0
2,4, 1, 4, 0, 2, 0.00,15.00,Wednesday      
7,30341.323746273
212,0.0
243,0.0
2,4, 1, 4, 0, 2,15.00,30.00,Wednesday      
7,30341.323746273
212,0.0
243,0.0
2,4, 1, 4, 0, 2,30.00,45.00,Wednesday      
7,30341.323746273
212,0.0
243,0.0
2,4, 1, 4, 0, 2,45.00,60.00,Wednesday      
7,30341.323746273
212,0.0
243,0.0
2,4, 1, 4, 0, 3, 0.00,15.00,Wednesday      
7,30341.323746273
212,6020.26624045224
243,0.0
2,4, 1, 4, 0, 3,15.00,30.00,Wednesday      
7,30341.323746273
212,16719.3009208951
243,0.0
2,4, 1, 4, 0, 3,30.00,45.00,Wednesday      
7,30341.323746273
212,26752.6430115029
243,0.0
2,4, 1, 4, 0, 3,45.00,60.00,Wednesday      
7,30341.323746273
212,36228.6105192768
243,0.0
2,4, 1, 4, 0, 4, 0.00,15.00,Wednesday      
7,30341.323746273
212,44653.7119095747
243,0.0
2,4, 1, 4, 0, 4,15.00,30.00,Wednesday      
7,30341.323746273
212,52358.8292668201
243,0.0
2,4, 1, 4, 0, 4,30.00,45.00,Wednesday      
7,30341.323746273
212,59473.5671207689
243,0.0
2,4, 1, 4, 0, 4,45.00,60.00,Wednesday      
7,30341.323746273
212,66054.4553253184
243,0.0
2,4, 1, 4, 0, 5, 0.00,15.00,Wednesday      
7,30341.323746273
212,72650.5948445584
243,0.0
2,4, 1, 4, 0, 5,15.00,30.00,Wednesday      
7,30341.323746273
212,78847.7132305406
243,0.0
2,4, 1, 4, 0, 5,30.00,45.00,Wednesday      
7,30341.323746273
212,84693.1171377863
243,0.0
2,4, 1, 4, 0, 5,45.00,60.00,Wednesday      
7,30341.323746273
212,90224.874033886
243,0.0
2,4, 1, 4, 0, 6, 0.00,15.00,Wednesday      
7,35572.5864611476
212,88570.2691213722
243,0.0
2,4, 1, 4, 0, 6,15.00,30.00,Wednesday      
7,35572.5864611476
212,93174.3745104831
243,0.0
2,4, 1, 4, 0, 6,30.00,45.00,Wednesday      
7,35572.5864611476
212,97563.2045968576
243,0.0
2,4, 1, 4, 0, 6,45.00,60.00,Wednesday      
7,35572.5864611476
212,101760.820977051
243,0.0
2,4, 1, 4, 0, 7, 0.00,15.00,Wednesday      
7,35572.5864611476
212,905924.768867182
243,0.0
2,4, 1, 4, 0, 7,15.00,30.00,Wednesday      
7,35572.5864611476
212,844982.014767512
243,0.0
2,4, 1, 4, 0, 7,30.00,45.00,Wednesday      
7,35572.5864611476
212,666996.157348422
243,0.0
2,4, 1, 4, 0, 7,45.00,60.00,Wednesday      
7,35572.5864611476
212,572865.973279688
243,0.0
2,4, 1, 4, 0, 8, 0.00,15.00,Wednesday      
7,56497.6373206462
212,507423.365207081
243,0.0
2,4, 1, 4, 0, 8,15.00,30.00,Wednesday      
7,56497.6373206462
212,470369.738341974
243,0.0
2,4, 1, 4, 0, 8,30.00,45.00,Wednesday      
7,56497.6373206462
212,439981.85402812
243,0.0
2,4, 1, 4, 0, 8,45.00,60.00,Wednesday      
7,56497.6373206462
212,414200.159912758
243,0.0
2,4, 1, 4, 0, 9, 0.00,15.00,Wednesday      
7,150660.36618839
212,409403.668677319
243,0.0
2,4, 1, 4, 0, 9,15.00,30.00,Wednesday      
7,150660.36618839
212,403669.843134432
243,0.0
2,4, 1, 4, 0, 9,30.00,45.00,Wednesday      
7,150660.36618839
212,392863.217505431
243,0.0
2,4, 1, 4, 0, 9,45.00,60.00,Wednesday      
7,150660.36618839
212,379975.115867908
243,0.0
2,4, 1, 4, 0,10, 0.00,15.00,Wednesday      
7,150660.36618839
212,364262.511541696
243,0.0
2,4, 1, 4, 0,10,15.00,30.00,Wednesday      
7,150660.36618839
212,347356.695614611
243,0.0
2,4, 1, 4, 0,10,30.00,45.00,Wednesday      
7,150660.36618839
212,334501.977854126
243,0.0
2,4, 1, 4, 0,10,45.00,60.00,Wednesday      
7,150660.36618839